# Force coefficients
# liftDir    : (1.000000e+00 0.000000e+00 0.000000e+00)
# dragDir    : (0.000000e+00 0.000000e+00 1.000000e+00)
# pitchAxis  : (0.000000e+00 1.000000e+00 0.000000e+00)
# magUInf    : 1.000000e+02
# lRef       : 1.000000e+00
# Aref       : 1.356200e-03
# CofR       : (0.000000e+00 0.000000e+00 3.810000e-01)
# Time       	Cm           	Cd           	Cl           	Cl(f)        	Cl(r)        	Cm	Cd	Cl	Cl(f)	Cl(r)
1.000000e+00	-4.156243e+00	-8.869142e+01	-6.508844e+01	-3.670046e+01	-2.838797e+01
2.000000e+00	-2.339567e+00	-5.539755e+01	-3.792379e+01	-2.130146e+01	-1.662233e+01
3.000000e+00	2.470465e-01	9.438399e+00	9.814068e+00	5.154081e+00	4.659988e+00
4.000000e+00	9.288946e-01	3.418494e+01	2.495566e+01	1.340673e+01	1.154894e+01
5.000000e+00	5.263385e-01	1.803811e+01	1.016295e+01	5.607812e+00	4.555135e+00
6.000000e+00	1.448572e-01	-7.308390e+00	-7.209932e+00	-3.460109e+00	-3.749823e+00
7.000000e+00	-5.693709e-02	-1.769027e+01	-1.063292e+01	-5.373397e+00	-5.259523e+00
8.000000e+00	-2.254335e-01	-9.342778e+00	-3.359787e+00	-1.905327e+00	-1.454460e+00
9.000000e+00	-3.095700e-01	2.792332e+00	3.258513e+00	1.319687e+00	1.938827e+00
1.000000e+01	-2.369882e-01	7.269340e+00	3.582448e+00	1.554236e+00	2.028212e+00
1.100000e+01	-8.580891e-02	2.405723e+00	4.370977e-02	-6.395402e-02	1.076638e-01
1.200000e+01	1.227244e-02	-3.793652e+00	-2.471959e+00	-1.223707e+00	-1.248252e+00
1.300000e+01	1.464318e-02	-5.304006e+00	-2.019683e+00	-9.951982e-01	-1.024485e+00
1.400000e+01	-2.755712e-02	-2.578825e+00	-1.833426e-01	-1.192284e-01	-6.411420e-02
1.500000e+01	-6.316284e-02	5.481192e-01	8.245312e-01	3.491027e-01	4.754284e-01
1.600000e+01	-8.201635e-02	1.188395e+00	4.103116e-01	1.231394e-01	2.871721e-01
1.700000e+01	-9.152163e-02	-3.020242e-01	-5.166512e-01	-3.498472e-01	-1.668040e-01
1.800000e+01	-9.373758e-02	-1.841653e+00	-9.437551e-01	-5.656151e-01	-3.781400e-01
1.900000e+01	-8.535048e-02	-2.086648e+00	-6.942384e-01	-4.324697e-01	-2.617687e-01
2.000000e+01	-6.886740e-02	-1.306566e+00	-2.292443e-01	-1.834895e-01	-4.575473e-02
2.100000e+01	-5.366759e-02	-5.340351e-01	-6.894441e-03	-5.711481e-02	5.022037e-02
2.200000e+01	-4.819935e-02	-4.181379e-01	-9.881795e-02	-9.760833e-02	-1.209620e-03
2.300000e+01	-5.364378e-02	-8.000997e-01	-2.986107e-01	-2.029491e-01	-9.566156e-02
2.400000e+01	-6.427663e-02	-1.152786e+00	-4.028145e-01	-2.656839e-01	-1.371306e-01
2.500000e+01	-7.233217e-02	-1.172542e+00	-3.717098e-01	-2.581871e-01	-1.135227e-01
2.600000e+01	-7.360083e-02	-9.519447e-01	-2.839330e-01	-2.155674e-01	-6.836569e-02
2.700000e+01	-6.914324e-02	-7.624947e-01	-2.272870e-01	-1.827867e-01	-4.450026e-02
2.800000e+01	-6.264155e-02	-7.477903e-01	-2.261558e-01	-1.757194e-01	-5.043632e-02
2.900000e+01	-5.804603e-02	-8.525218e-01	-2.530008e-01	-1.845464e-01	-6.845438e-02
3.000000e+01	-5.688477e-02	-9.351241e-01	-2.709639e-01	-1.923667e-01	-7.859719e-02
3.100000e+01	-5.837193e-02	-9.245549e-01	-2.661780e-01	-1.914610e-01	-7.471709e-02
3.200000e+01	-6.051358e-02	-8.537786e-01	-2.487442e-01	-1.848857e-01	-6.385853e-02
3.300000e+01	-6.159688e-02	-7.960906e-01	-2.350091e-01	-1.791014e-01	-5.590768e-02
3.400000e+01	-6.096966e-02	-7.872464e-01	-2.336120e-01	-1.777757e-01	-5.583636e-02
3.500000e+01	-5.950872e-02	-8.109102e-01	-2.394252e-01	-1.792213e-01	-6.020389e-02
3.600000e+01	-5.821364e-02	-8.294057e-01	-2.426233e-01	-1.795253e-01	-6.309800e-02
3.700000e+01	-5.741241e-02	-8.224554e-01	-2.383725e-01	-1.765986e-01	-6.177382e-02
3.800000e+01	-5.696149e-02	-7.981162e-01	-2.295822e-01	-1.717526e-01	-5.782962e-02
3.900000e+01	-5.650430e-02	-7.775691e-01	-2.223460e-01	-1.676773e-01	-5.466869e-02
4.000000e+01	-5.601231e-02	-7.699325e-01	-2.201842e-01	-1.661044e-01	-5.407977e-02
4.100000e+01	-5.559183e-02	-7.712909e-01	-2.213687e-01	-1.662762e-01	-5.509254e-02
4.200000e+01	-5.530963e-02	-7.713320e-01	-2.223279e-01	-1.664736e-01	-5.585430e-02
4.300000e+01	-5.492486e-02	-7.652453e-01	-2.203150e-01	-1.650824e-01	-5.523266e-02
4.400000e+01	-5.438053e-02	-7.543138e-01	-2.163478e-01	-1.625544e-01	-5.379338e-02
4.500000e+01	-5.371400e-02	-7.439713e-01	-2.123560e-01	-1.598920e-01	-5.246399e-02
4.600000e+01	-5.306118e-02	-7.379239e-01	-2.101401e-01	-1.581312e-01	-5.200886e-02
4.700000e+01	-5.261633e-02	-7.348186e-01	-2.095317e-01	-1.573822e-01	-5.214953e-02
4.800000e+01	-5.234540e-02	-7.313685e-01	-2.090450e-01	-1.568679e-01	-5.217713e-02
4.900000e+01	-5.208255e-02	-7.260772e-01	-2.078026e-01	-1.559839e-01	-5.181877e-02
5.000000e+01	-5.169500e-02	-7.191365e-01	-2.058629e-01	-1.546265e-01	-5.123647e-02
5.100000e+01	-5.117954e-02	-7.122442e-01	-2.038534e-01	-1.531063e-01	-5.074718e-02
5.200000e+01	-5.067334e-02	-7.068858e-01	-2.024836e-01	-1.519152e-01	-5.056848e-02
5.300000e+01	-5.023307e-02	-7.027687e-01	-2.013755e-01	-1.509208e-01	-5.045467e-02
5.400000e+01	-4.986622e-02	-6.989729e-01	-2.003176e-01	-1.500250e-01	-5.029260e-02
5.500000e+01	-4.954769e-02	-6.943386e-01	-1.992499e-01	-1.491726e-01	-5.007725e-02
5.600000e+01	-4.920224e-02	-6.891928e-01	-1.981659e-01	-1.482852e-01	-4.988072e-02
5.700000e+01	-4.884739e-02	-6.839928e-01	-1.971648e-01	-1.474298e-01	-4.973503e-02
5.800000e+01	-4.852322e-02	-6.791927e-01	-1.963214e-01	-1.466839e-01	-4.963745e-02
5.900000e+01	-4.820674e-02	-6.752584e-01	-1.955374e-01	-1.459754e-01	-4.956197e-02
6.000000e+01	-4.790288e-02	-6.712675e-01	-1.947244e-01	-1.452651e-01	-4.945935e-02
6.100000e+01	-4.760639e-02	-6.670035e-01	-1.939252e-01	-1.445690e-01	-4.935622e-02
6.200000e+01	-4.730370e-02	-6.631250e-01	-1.931430e-01	-1.438752e-01	-4.926780e-02
6.300000e+01	-4.700884e-02	-6.591816e-01	-1.924825e-01	-1.432501e-01	-4.923243e-02
6.400000e+01	-4.674768e-02	-6.550476e-01	-1.918593e-01	-1.426774e-01	-4.918198e-02
6.500000e+01	-4.650291e-02	-6.509261e-01	-1.912511e-01	-1.421284e-01	-4.912262e-02
6.600000e+01	-4.628273e-02	-6.471052e-01	-1.907503e-01	-1.416579e-01	-4.909243e-02
6.700000e+01	-4.606720e-02	-6.437893e-01	-1.902278e-01	-1.411811e-01	-4.904670e-02
6.800000e+01	-4.585036e-02	-6.404245e-01	-1.897304e-01	-1.407156e-01	-4.901485e-02
6.900000e+01	-4.563776e-02	-6.368086e-01	-1.892742e-01	-1.402748e-01	-4.899933e-02
7.000000e+01	-4.544201e-02	-6.329405e-01	-1.888131e-01	-1.398486e-01	-4.896457e-02
7.100000e+01	-4.525893e-02	-6.294857e-01	-1.883871e-01	-1.394525e-01	-4.893462e-02
7.200000e+01	-4.510262e-02	-6.263101e-01	-1.880303e-01	-1.391178e-01	-4.891254e-02
7.300000e+01	-4.494976e-02	-6.232599e-01	-1.876768e-01	-1.387881e-01	-4.888862e-02
7.400000e+01	-4.480683e-02	-6.199829e-01	-1.873445e-01	-1.384791e-01	-4.886542e-02
7.500000e+01	-4.466288e-02	-6.167111e-01	-1.869960e-01	-1.381609e-01	-4.883512e-02
7.600000e+01	-4.453416e-02	-6.137192e-01	-1.866762e-01	-1.378723e-01	-4.880394e-02
7.700000e+01	-4.441471e-02	-6.108317e-01	-1.863904e-01	-1.376099e-01	-4.878050e-02
7.800000e+01	-4.430232e-02	-6.077988e-01	-1.861510e-01	-1.373778e-01	-4.877317e-02
7.900000e+01	-4.419580e-02	-6.048762e-01	-1.859097e-01	-1.371506e-01	-4.875904e-02
8.000000e+01	-4.410081e-02	-6.020444e-01	-1.856657e-01	-1.369337e-01	-4.873204e-02
8.100000e+01	-4.401172e-02	-5.993163e-01	-1.854322e-01	-1.367278e-01	-4.870437e-02
8.200000e+01	-4.392695e-02	-5.966529e-01	-1.852332e-01	-1.365436e-01	-4.868967e-02
8.300000e+01	-4.385533e-02	-5.939596e-01	-1.850555e-01	-1.363831e-01	-4.867240e-02
8.400000e+01	-4.378608e-02	-5.913631e-01	-1.848708e-01	-1.362215e-01	-4.864933e-02
8.500000e+01	-4.371790e-02	-5.888545e-01	-1.847130e-01	-1.360744e-01	-4.863858e-02
8.600000e+01	-4.364902e-02	-5.863784e-01	-1.845727e-01	-1.359354e-01	-4.863732e-02
8.700000e+01	-4.359005e-02	-5.839873e-01	-1.844490e-01	-1.358145e-01	-4.863444e-02
8.800000e+01	-4.353252e-02	-5.816221e-01	-1.843254e-01	-1.356952e-01	-4.863020e-02
8.900000e+01	-4.348299e-02	-5.793062e-01	-1.842233e-01	-1.355946e-01	-4.862865e-02
9.000000e+01	-4.343054e-02	-5.770156e-01	-1.841258e-01	-1.354934e-01	-4.863237e-02
9.100000e+01	-4.338519e-02	-5.748138e-01	-1.840563e-01	-1.354133e-01	-4.864294e-02
9.200000e+01	-4.333600e-02	-5.726373e-01	-1.839724e-01	-1.353222e-01	-4.865020e-02
9.300000e+01	-4.328957e-02	-5.705016e-01	-1.839287e-01	-1.352539e-01	-4.867477e-02
9.400000e+01	-4.324411e-02	-5.684338e-01	-1.838681e-01	-1.351781e-01	-4.868992e-02
9.500000e+01	-4.320267e-02	-5.663972e-01	-1.838493e-01	-1.351273e-01	-4.872199e-02
9.600000e+01	-4.315816e-02	-5.644019e-01	-1.838198e-01	-1.350681e-01	-4.875174e-02
9.700000e+01	-4.311924e-02	-5.624516e-01	-1.838066e-01	-1.350225e-01	-4.878406e-02
9.800000e+01	-4.307424e-02	-5.605228e-01	-1.837913e-01	-1.349699e-01	-4.882142e-02
9.900000e+01	-4.303600e-02	-5.586417e-01	-1.837922e-01	-1.349321e-01	-4.886011e-02
1.000000e+02	-4.298805e-02	-5.567679e-01	-1.838068e-01	-1.348915e-01	-4.891536e-02
1.010000e+02	-4.295018e-02	-5.549451e-01	-1.838147e-01	-1.348575e-01	-4.895715e-02
1.020000e+02	-4.290417e-02	-5.531502e-01	-1.838351e-01	-1.348217e-01	-4.901337e-02
1.030000e+02	-4.286698e-02	-5.514069e-01	-1.838549e-01	-1.347944e-01	-4.906044e-02
1.040000e+02	-4.282117e-02	-5.496760e-01	-1.838832e-01	-1.347628e-01	-4.912045e-02
1.050000e+02	-4.277904e-02	-5.479741e-01	-1.839282e-01	-1.347431e-01	-4.918505e-02
1.060000e+02	-4.273257e-02	-5.462860e-01	-1.839627e-01	-1.347139e-01	-4.924878e-02
1.070000e+02	-4.269090e-02	-5.446229e-01	-1.840083e-01	-1.346950e-01	-4.931324e-02
1.080000e+02	-4.264853e-02	-5.429793e-01	-1.840286e-01	-1.346629e-01	-4.936578e-02
1.090000e+02	-4.260811e-02	-5.412120e-01	-1.840698e-01	-1.346430e-01	-4.942678e-02
1.100000e+02	-4.256147e-02	-5.394912e-01	-1.841045e-01	-1.346137e-01	-4.949079e-02
1.110000e+02	-4.251859e-02	-5.379102e-01	-1.841518e-01	-1.345945e-01	-4.955730e-02
1.120000e+02	-4.247106e-02	-5.364192e-01	-1.841897e-01	-1.345659e-01	-4.962378e-02
1.130000e+02	-4.242991e-02	-5.349398e-01	-1.842346e-01	-1.345472e-01	-4.968739e-02
1.140000e+02	-4.238671e-02	-5.333296e-01	-1.842658e-01	-1.345196e-01	-4.974618e-02
1.150000e+02	-4.234762e-02	-5.317045e-01	-1.843038e-01	-1.344995e-01	-4.980430e-02
1.160000e+02	-4.230158e-02	-5.301607e-01	-1.843290e-01	-1.344661e-01	-4.986292e-02
1.170000e+02	-4.226070e-02	-5.286474e-01	-1.843621e-01	-1.344418e-01	-4.992035e-02
1.180000e+02	-4.221753e-02	-5.271489e-01	-1.843843e-01	-1.344097e-01	-4.997460e-02
1.190000e+02	-4.217959e-02	-5.256944e-01	-1.844108e-01	-1.343850e-01	-5.002581e-02
1.200000e+02	-4.213707e-02	-5.242545e-01	-1.844223e-01	-1.343482e-01	-5.007410e-02
1.210000e+02	-4.209869e-02	-5.228042e-01	-1.844371e-01	-1.343173e-01	-5.011988e-02
1.220000e+02	-4.205729e-02	-5.213441e-01	-1.844424e-01	-1.342785e-01	-5.016392e-02
1.230000e+02	-4.202245e-02	-5.198938e-01	-1.844452e-01	-1.342451e-01	-5.020017e-02
1.240000e+02	-4.198476e-02	-5.184659e-01	-1.844408e-01	-1.342051e-01	-5.023562e-02
1.250000e+02	-4.194980e-02	-5.170580e-01	-1.844348e-01	-1.341672e-01	-5.026761e-02
1.260000e+02	-4.191360e-02	-5.156592e-01	-1.844184e-01	-1.341228e-01	-5.029562e-02
1.270000e+02	-4.188076e-02	-5.142652e-01	-1.844006e-01	-1.340811e-01	-5.031956e-02
1.280000e+02	-4.184851e-02	-5.128788e-01	-1.843775e-01	-1.340372e-01	-5.034022e-02
1.290000e+02	-4.181876e-02	-5.114964e-01	-1.843507e-01	-1.339941e-01	-5.035662e-02
1.300000e+02	-4.179066e-02	-5.101395e-01	-1.843134e-01	-1.339474e-01	-5.036605e-02
1.310000e+02	-4.176182e-02	-5.087958e-01	-1.842710e-01	-1.338973e-01	-5.037367e-02
1.320000e+02	-4.173308e-02	-5.074648e-01	-1.842339e-01	-1.338500e-01	-5.038387e-02
1.330000e+02	-4.170521e-02	-5.061378e-01	-1.841869e-01	-1.337986e-01	-5.038823e-02
1.340000e+02	-4.168149e-02	-5.048299e-01	-1.841408e-01	-1.337519e-01	-5.038890e-02
1.350000e+02	-4.165734e-02	-5.035337e-01	-1.840835e-01	-1.336991e-01	-5.038440e-02
1.360000e+02	-4.163593e-02	-5.022561e-01	-1.840250e-01	-1.336484e-01	-5.037656e-02
1.370000e+02	-4.161108e-02	-5.009874e-01	-1.839672e-01	-1.335947e-01	-5.037252e-02
1.380000e+02	-4.158972e-02	-4.997414e-01	-1.839125e-01	-1.335460e-01	-5.036652e-02
1.390000e+02	-4.156701e-02	-4.985083e-01	-1.838474e-01	-1.334907e-01	-5.035669e-02
1.400000e+02	-4.154885e-02	-4.972890e-01	-1.837852e-01	-1.334415e-01	-5.034376e-02
1.410000e+02	-4.152804e-02	-4.960858e-01	-1.837143e-01	-1.333852e-01	-5.032912e-02
1.420000e+02	-4.150960e-02	-4.949073e-01	-1.836523e-01	-1.333357e-01	-5.031655e-02
1.430000e+02	-4.148859e-02	-4.937340e-01	-1.835831e-01	-1.332801e-01	-5.030295e-02
1.440000e+02	-4.147149e-02	-4.925855e-01	-1.835205e-01	-1.332317e-01	-5.028874e-02
1.450000e+02	-4.145076e-02	-4.914538e-01	-1.834517e-01	-1.331766e-01	-5.027511e-02
1.460000e+02	-4.143476e-02	-4.903371e-01	-1.833881e-01	-1.331288e-01	-5.025932e-02
1.470000e+02	-4.141458e-02	-4.892365e-01	-1.833201e-01	-1.330746e-01	-5.024546e-02
1.480000e+02	-4.139822e-02	-4.881572e-01	-1.832590e-01	-1.330277e-01	-5.023131e-02
1.490000e+02	-4.137943e-02	-4.870888e-01	-1.831892e-01	-1.329740e-01	-5.021516e-02
1.500000e+02	-4.136303e-02	-4.860441e-01	-1.831319e-01	-1.329290e-01	-5.020290e-02
1.510000e+02	-4.134285e-02	-4.850097e-01	-1.830693e-01	-1.328775e-01	-5.019179e-02
1.520000e+02	-4.132702e-02	-4.839945e-01	-1.830123e-01	-1.328332e-01	-5.017913e-02
1.530000e+02	-4.130707e-02	-4.829922e-01	-1.829518e-01	-1.327830e-01	-5.016885e-02
1.540000e+02	-4.129079e-02	-4.820104e-01	-1.828988e-01	-1.327402e-01	-5.015863e-02
1.550000e+02	-4.127158e-02	-4.810377e-01	-1.828404e-01	-1.326918e-01	-5.014862e-02
1.560000e+02	-4.125542e-02	-4.800839e-01	-1.827904e-01	-1.326506e-01	-5.013976e-02
1.570000e+02	-4.123584e-02	-4.791393e-01	-1.827359e-01	-1.326038e-01	-5.013210e-02
1.580000e+02	-4.121909e-02	-4.782125e-01	-1.826903e-01	-1.325642e-01	-5.012606e-02
1.590000e+02	-4.119915e-02	-4.772951e-01	-1.826404e-01	-1.325194e-01	-5.012106e-02
1.600000e+02	-4.118249e-02	-4.763937e-01	-1.825988e-01	-1.324819e-01	-5.011691e-02
1.610000e+02	-4.116258e-02	-4.754996e-01	-1.825515e-01	-1.324383e-01	-5.011319e-02
1.620000e+02	-4.114588e-02	-4.746197e-01	-1.825130e-01	-1.324024e-01	-5.011060e-02
1.630000e+02	-4.112563e-02	-4.737471e-01	-1.824696e-01	-1.323604e-01	-5.010918e-02
1.640000e+02	-4.110838e-02	-4.728880e-01	-1.824372e-01	-1.323270e-01	-5.011024e-02
1.650000e+02	-4.108751e-02	-4.720348e-01	-1.823996e-01	-1.322873e-01	-5.011229e-02
1.660000e+02	-4.106721e-02	-4.712436e-01	-1.823708e-01	-1.322526e-01	-5.011820e-02
1.670000e+02	-4.104403e-02	-4.704428e-01	-1.823375e-01	-1.322128e-01	-5.012474e-02
1.680000e+02	-4.102569e-02	-4.696196e-01	-1.823157e-01	-1.321835e-01	-5.013215e-02
1.690000e+02	-4.100576e-02	-4.687876e-01	-1.822869e-01	-1.321492e-01	-5.013770e-02
1.700000e+02	-4.099107e-02	-4.679587e-01	-1.822558e-01	-1.321189e-01	-5.013681e-02
1.710000e+02	-4.097190e-02	-4.671483e-01	-1.822221e-01	-1.320829e-01	-5.013914e-02
1.720000e+02	-4.095087e-02	-4.663597e-01	-1.822086e-01	-1.320552e-01	-5.015343e-02
1.730000e+02	-4.092621e-02	-4.655858e-01	-1.821956e-01	-1.320240e-01	-5.017161e-02
1.740000e+02	-4.090080e-02	-4.648538e-01	-1.821960e-01	-1.319988e-01	-5.019721e-02
1.750000e+02	-4.087523e-02	-4.641071e-01	-1.821890e-01	-1.319697e-01	-5.021927e-02
1.760000e+02	-4.085433e-02	-4.633370e-01	-1.821808e-01	-1.319447e-01	-5.023607e-02
1.770000e+02	-4.083234e-02	-4.625578e-01	-1.821685e-01	-1.319166e-01	-5.025193e-02
1.780000e+02	-4.080996e-02	-4.617958e-01	-1.821656e-01	-1.318928e-01	-5.027284e-02
1.790000e+02	-4.078357e-02	-4.610534e-01	-1.821672e-01	-1.318672e-01	-5.030003e-02
1.800000e+02	-4.075698e-02	-4.603238e-01	-1.821770e-01	-1.318455e-01	-5.033153e-02
1.810000e+02	-4.072903e-02	-4.595926e-01	-1.821862e-01	-1.318221e-01	-5.036407e-02
1.820000e+02	-4.070241e-02	-4.588601e-01	-1.821988e-01	-1.318018e-01	-5.039697e-02
1.830000e+02	-4.067461e-02	-4.581265e-01	-1.822111e-01	-1.317802e-01	-5.043095e-02
1.840000e+02	-4.064646e-02	-4.574002e-01	-1.822292e-01	-1.317611e-01	-5.046814e-02
1.850000e+02	-4.061592e-02	-4.566818e-01	-1.822515e-01	-1.317416e-01	-5.050981e-02
1.860000e+02	-4.058488e-02	-4.559732e-01	-1.822799e-01	-1.317248e-01	-5.055505e-02
1.870000e+02	-4.055281e-02	-4.552694e-01	-1.823094e-01	-1.317075e-01	-5.060187e-02
1.880000e+02	-4.052028e-02	-4.545638e-01	-1.823424e-01	-1.316915e-01	-5.065093e-02
1.890000e+02	-4.048669e-02	-4.538589e-01	-1.823781e-01	-1.316757e-01	-5.070234e-02
1.900000e+02	-4.045202e-02	-4.531610e-01	-1.824186e-01	-1.316613e-01	-5.075727e-02
1.910000e+02	-4.041618e-02	-4.524698e-01	-1.824633e-01	-1.316478e-01	-5.081546e-02
1.920000e+02	-4.037941e-02	-4.517844e-01	-1.825120e-01	-1.316354e-01	-5.087658e-02
1.930000e+02	-4.034218e-02	-4.511042e-01	-1.825628e-01	-1.316236e-01	-5.093920e-02
1.940000e+02	-4.030402e-02	-4.504267e-01	-1.826149e-01	-1.316115e-01	-5.100343e-02
1.950000e+02	-4.026495e-02	-4.497498e-01	-1.826723e-01	-1.316011e-01	-5.107122e-02
1.960000e+02	-4.022410e-02	-4.490779e-01	-1.827342e-01	-1.315912e-01	-5.114301e-02
1.970000e+02	-4.018341e-02	-4.484132e-01	-1.827994e-01	-1.315831e-01	-5.121630e-02
1.980000e+02	-4.014175e-02	-4.477537e-01	-1.828643e-01	-1.315739e-01	-5.129040e-02
1.990000e+02	-4.010013e-02	-4.471461e-01	-1.829312e-01	-1.315657e-01	-5.136546e-02
2.000000e+02	-4.005619e-02	-4.465272e-01	-1.830023e-01	-1.315573e-01	-5.144495e-02
2.010000e+02	-4.001251e-02	-4.458762e-01	-1.830769e-01	-1.315509e-01	-5.152592e-02
2.020000e+02	-3.996796e-02	-4.452080e-01	-1.831521e-01	-1.315440e-01	-5.160808e-02
2.030000e+02	-3.992398e-02	-4.445524e-01	-1.832307e-01	-1.315393e-01	-5.169137e-02
2.040000e+02	-3.987866e-02	-4.439199e-01	-1.833097e-01	-1.315335e-01	-5.177617e-02
2.050000e+02	-3.983355e-02	-4.433020e-01	-1.833929e-01	-1.315300e-01	-5.186289e-02
2.060000e+02	-3.978714e-02	-4.426854e-01	-1.834753e-01	-1.315248e-01	-5.195049e-02
2.070000e+02	-3.974133e-02	-4.420650e-01	-1.835599e-01	-1.315213e-01	-5.203863e-02
2.080000e+02	-3.969443e-02	-4.414411e-01	-1.836439e-01	-1.315164e-01	-5.212753e-02
2.090000e+02	-3.964837e-02	-4.408244e-01	-1.837300e-01	-1.315134e-01	-5.221662e-02
2.100000e+02	-3.960167e-02	-4.402159e-01	-1.838152e-01	-1.315093e-01	-5.230595e-02
2.110000e+02	-3.955590e-02	-4.396180e-01	-1.839020e-01	-1.315069e-01	-5.239512e-02
2.120000e+02	-3.950945e-02	-4.390182e-01	-1.839873e-01	-1.315031e-01	-5.248422e-02
2.130000e+02	-3.946359e-02	-4.384203e-01	-1.840740e-01	-1.315006e-01	-5.257339e-02
2.140000e+02	-3.941673e-02	-4.378168e-01	-1.841593e-01	-1.314964e-01	-5.266293e-02
2.150000e+02	-3.937157e-02	-4.372244e-01	-1.842454e-01	-1.314943e-01	-5.275115e-02
2.160000e+02	-3.932638e-02	-4.366426e-01	-1.843288e-01	-1.314908e-01	-5.283805e-02
2.170000e+02	-3.928259e-02	-4.360696e-01	-1.844126e-01	-1.314889e-01	-5.292369e-02
2.180000e+02	-3.923812e-02	-4.354945e-01	-1.844943e-01	-1.314853e-01	-5.300902e-02
2.190000e+02	-3.919435e-02	-4.349201e-01	-1.845768e-01	-1.314828e-01	-5.309405e-02
2.200000e+02	-3.915070e-02	-4.343452e-01	-1.846568e-01	-1.314791e-01	-5.317770e-02
2.210000e+02	-3.910879e-02	-4.337778e-01	-1.847351e-01	-1.314763e-01	-5.325876e-02
2.220000e+02	-3.906720e-02	-4.332150e-01	-1.848107e-01	-1.314726e-01	-5.333816e-02
2.230000e+02	-3.902653e-02	-4.326591e-01	-1.848856e-01	-1.314693e-01	-5.341627e-02
2.240000e+02	-3.898588e-02	-4.321032e-01	-1.849585e-01	-1.314651e-01	-5.349336e-02
2.250000e+02	-3.894656e-02	-4.315495e-01	-1.850298e-01	-1.314615e-01	-5.356835e-02
2.260000e+02	-3.890796e-02	-4.309974e-01	-1.850983e-01	-1.314571e-01	-5.364117e-02
2.270000e+02	-3.887036e-02	-4.304513e-01	-1.851651e-01	-1.314529e-01	-5.371220e-02
2.280000e+02	-3.883359e-02	-4.299069e-01	-1.852289e-01	-1.314480e-01	-5.378086e-02
2.290000e+02	-3.879779e-02	-4.293668e-01	-1.852909e-01	-1.314432e-01	-5.384765e-02
2.300000e+02	-3.876284e-02	-4.288287e-01	-1.853503e-01	-1.314380e-01	-5.391230e-02
2.310000e+02	-3.872889e-02	-4.282947e-01	-1.854072e-01	-1.314325e-01	-5.397470e-02
2.320000e+02	-3.869579e-02	-4.277610e-01	-1.854615e-01	-1.314266e-01	-5.403498e-02
2.330000e+02	-3.866376e-02	-4.272309e-01	-1.855140e-01	-1.314207e-01	-5.409323e-02
2.340000e+02	-3.863257e-02	-4.267035e-01	-1.855637e-01	-1.314144e-01	-5.414929e-02
2.350000e+02	-3.860248e-02	-4.261805e-01	-1.856108e-01	-1.314079e-01	-5.420291e-02
2.360000e+02	-3.857337e-02	-4.256581e-01	-1.856549e-01	-1.314008e-01	-5.425407e-02
2.370000e+02	-3.854510e-02	-4.251387e-01	-1.856973e-01	-1.313938e-01	-5.430357e-02
2.380000e+02	-3.851784e-02	-4.246212e-01	-1.857375e-01	-1.313866e-01	-5.435090e-02
2.390000e+02	-3.849144e-02	-4.241076e-01	-1.857747e-01	-1.313788e-01	-5.439589e-02
2.400000e+02	-3.846619e-02	-4.235949e-01	-1.858096e-01	-1.313710e-01	-5.443858e-02
2.410000e+02	-3.844145e-02	-4.230853e-01	-1.858423e-01	-1.313626e-01	-5.447972e-02
2.420000e+02	-3.841790e-02	-4.225778e-01	-1.858736e-01	-1.313547e-01	-5.451890e-02
2.430000e+02	-3.839502e-02	-4.220737e-01	-1.859012e-01	-1.313456e-01	-5.455556e-02
2.440000e+02	-3.837332e-02	-4.215698e-01	-1.859280e-01	-1.313373e-01	-5.459066e-02
2.450000e+02	-3.835211e-02	-4.210702e-01	-1.859514e-01	-1.313278e-01	-5.462361e-02
2.460000e+02	-3.833191e-02	-4.205712e-01	-1.859744e-01	-1.313191e-01	-5.465531e-02
2.470000e+02	-3.831207e-02	-4.200758e-01	-1.859946e-01	-1.313094e-01	-5.468524e-02
2.480000e+02	-3.829354e-02	-4.195816e-01	-1.860137e-01	-1.313004e-01	-5.471329e-02
2.490000e+02	-3.827528e-02	-4.190906e-01	-1.860298e-01	-1.312902e-01	-5.473964e-02
2.500000e+02	-3.825812e-02	-4.186007e-01	-1.860457e-01	-1.312810e-01	-5.476474e-02
2.510000e+02	-3.824112e-02	-4.181141e-01	-1.860589e-01	-1.312706e-01	-5.478835e-02
2.520000e+02	-3.822520e-02	-4.176288e-01	-1.860718e-01	-1.312611e-01	-5.481070e-02
2.530000e+02	-3.820945e-02	-4.171464e-01	-1.860821e-01	-1.312505e-01	-5.483159e-02
2.540000e+02	-3.819473e-02	-4.166653e-01	-1.860922e-01	-1.312408e-01	-5.485139e-02
2.550000e+02	-3.818002e-02	-4.161867e-01	-1.861000e-01	-1.312300e-01	-5.487000e-02
2.560000e+02	-3.816627e-02	-4.157088e-01	-1.861080e-01	-1.312203e-01	-5.488770e-02
2.570000e+02	-3.815283e-02	-4.152390e-01	-1.861135e-01	-1.312096e-01	-5.490392e-02
2.580000e+02	-3.814049e-02	-4.147715e-01	-1.861196e-01	-1.312003e-01	-5.491931e-02
2.590000e+02	-3.812770e-02	-4.143031e-01	-1.861232e-01	-1.311893e-01	-5.493392e-02
2.600000e+02	-3.811583e-02	-4.138356e-01	-1.861279e-01	-1.311798e-01	-5.494813e-02
2.610000e+02	-3.810353e-02	-4.133694e-01	-1.861304e-01	-1.311687e-01	-5.496168e-02
2.620000e+02	-3.809230e-02	-4.129064e-01	-1.861338e-01	-1.311592e-01	-5.497460e-02
2.630000e+02	-3.808076e-02	-4.124464e-01	-1.861349e-01	-1.311482e-01	-5.498667e-02
2.640000e+02	-3.807034e-02	-4.119902e-01	-1.861371e-01	-1.311389e-01	-5.499820e-02
2.650000e+02	-3.805943e-02	-4.115354e-01	-1.861372e-01	-1.311280e-01	-5.500915e-02
2.660000e+02	-3.804944e-02	-4.110835e-01	-1.861385e-01	-1.311187e-01	-5.501983e-02
2.670000e+02	-3.803889e-02	-4.106334e-01	-1.861378e-01	-1.311078e-01	-5.503000e-02
2.680000e+02	-3.802929e-02	-4.101808e-01	-1.861397e-01	-1.310992e-01	-5.504058e-02
2.690000e+02	-3.801937e-02	-4.097269e-01	-1.861406e-01	-1.310897e-01	-5.505093e-02
2.700000e+02	-3.801036e-02	-4.092837e-01	-1.861421e-01	-1.310814e-01	-5.506071e-02
2.710000e+02	-3.800049e-02	-4.088464e-01	-1.861402e-01	-1.310706e-01	-5.506964e-02
2.720000e+02	-3.799152e-02	-4.084137e-01	-1.861398e-01	-1.310614e-01	-5.507836e-02
2.730000e+02	-3.798174e-02	-4.079783e-01	-1.861381e-01	-1.310508e-01	-5.508732e-02
2.740000e+02	-3.797305e-02	-4.075450e-01	-1.861398e-01	-1.310429e-01	-5.509682e-02
2.750000e+02	-3.796345e-02	-4.071112e-01	-1.861397e-01	-1.310333e-01	-5.510642e-02
2.760000e+02	-3.795506e-02	-4.066837e-01	-1.861415e-01	-1.310258e-01	-5.511569e-02
2.770000e+02	-3.794573e-02	-4.062571e-01	-1.861407e-01	-1.310161e-01	-5.512460e-02
2.780000e+02	-3.793754e-02	-4.058368e-01	-1.861422e-01	-1.310086e-01	-5.513356e-02
2.790000e+02	-3.792817e-02	-4.054165e-01	-1.861419e-01	-1.309991e-01	-5.514279e-02
2.800000e+02	-3.791989e-02	-4.050020e-01	-1.861446e-01	-1.309922e-01	-5.515242e-02
2.810000e+02	-3.791001e-02	-4.045635e-01	-1.861466e-01	-1.309833e-01	-5.516327e-02
2.820000e+02	-3.790140e-02	-4.041312e-01	-1.861513e-01	-1.309771e-01	-5.517426e-02
2.830000e+02	-3.789196e-02	-4.037115e-01	-1.861531e-01	-1.309685e-01	-5.518459e-02
2.840000e+02	-3.788388e-02	-4.033083e-01	-1.861568e-01	-1.309623e-01	-5.519454e-02
2.850000e+02	-3.787449e-02	-4.029035e-01	-1.861582e-01	-1.309536e-01	-5.520461e-02
2.860000e+02	-3.786600e-02	-4.024983e-01	-1.861626e-01	-1.309473e-01	-5.521532e-02
2.870000e+02	-3.785629e-02	-4.020855e-01	-1.861657e-01	-1.309391e-01	-5.522655e-02
2.880000e+02	-3.784760e-02	-4.016779e-01	-1.861711e-01	-1.309331e-01	-5.523795e-02
2.890000e+02	-3.783822e-02	-4.012717e-01	-1.861751e-01	-1.309258e-01	-5.524931e-02
2.900000e+02	-3.782965e-02	-4.008749e-01	-1.861809e-01	-1.309201e-01	-5.526082e-02
2.910000e+02	-3.782032e-02	-4.004775e-01	-1.861857e-01	-1.309132e-01	-5.527253e-02
2.920000e+02	-3.781143e-02	-4.000840e-01	-1.861922e-01	-1.309075e-01	-5.528467e-02
2.930000e+02	-3.780190e-02	-3.996867e-01	-1.861979e-01	-1.309008e-01	-5.529704e-02
2.940000e+02	-3.779287e-02	-3.992945e-01	-1.862050e-01	-1.308954e-01	-5.530965e-02
2.950000e+02	-3.778337e-02	-3.989015e-01	-1.862115e-01	-1.308891e-01	-5.532236e-02
2.960000e+02	-3.777435e-02	-3.985160e-01	-1.862192e-01	-1.308840e-01	-5.533526e-02
2.970000e+02	-3.776488e-02	-3.981292e-01	-1.862265e-01	-1.308781e-01	-5.534835e-02
2.980000e+02	-3.775557e-02	-3.977478e-01	-1.862347e-01	-1.308729e-01	-5.536177e-02
2.990000e+02	-3.774618e-02	-3.973634e-01	-1.862431e-01	-1.308677e-01	-5.537537e-02
3.000000e+02	-3.773671e-02	-3.969845e-01	-1.862518e-01	-1.308626e-01	-5.538919e-02
3.010000e+02	-3.772743e-02	-3.966039e-01	-1.862611e-01	-1.308580e-01	-5.540310e-02
3.020000e+02	-3.771773e-02	-3.962298e-01	-1.862699e-01	-1.308527e-01	-5.541724e-02
3.030000e+02	-3.770855e-02	-3.958543e-01	-1.862801e-01	-1.308486e-01	-5.543151e-02
3.040000e+02	-3.769864e-02	-3.954844e-01	-1.862893e-01	-1.308433e-01	-5.544603e-02
3.050000e+02	-3.768962e-02	-3.951123e-01	-1.863005e-01	-1.308399e-01	-5.546065e-02
3.060000e+02	-3.767951e-02	-3.947453e-01	-1.863100e-01	-1.308345e-01	-5.547547e-02
3.070000e+02	-3.767059e-02	-3.943767e-01	-1.863219e-01	-1.308315e-01	-5.549035e-02
3.080000e+02	-3.766041e-02	-3.940138e-01	-1.863317e-01	-1.308263e-01	-5.550544e-02
3.090000e+02	-3.765151e-02	-3.936494e-01	-1.863442e-01	-1.308236e-01	-5.552057e-02
3.100000e+02	-3.764122e-02	-3.932906e-01	-1.863542e-01	-1.308183e-01	-5.553589e-02
3.110000e+02	-3.763237e-02	-3.929296e-01	-1.863672e-01	-1.308160e-01	-5.555125e-02
3.120000e+02	-3.762207e-02	-3.925740e-01	-1.863777e-01	-1.308109e-01	-5.556679e-02
3.130000e+02	-3.761320e-02	-3.922165e-01	-1.863911e-01	-1.308087e-01	-5.558234e-02
3.140000e+02	-3.760288e-02	-3.918645e-01	-1.864018e-01	-1.308038e-01	-5.559804e-02
3.150000e+02	-3.759421e-02	-3.915108e-01	-1.864159e-01	-1.308021e-01	-5.561372e-02
3.160000e+02	-3.758380e-02	-3.911624e-01	-1.864267e-01	-1.307972e-01	-5.562956e-02
3.170000e+02	-3.757518e-02	-3.908122e-01	-1.864411e-01	-1.307958e-01	-5.564539e-02
3.180000e+02	-3.756461e-02	-3.904670e-01	-1.864519e-01	-1.307906e-01	-5.566135e-02
3.190000e+02	-3.755617e-02	-3.901202e-01	-1.864669e-01	-1.307896e-01	-5.567727e-02
3.200000e+02	-3.754559e-02	-3.897782e-01	-1.864778e-01	-1.307845e-01	-5.569332e-02
3.210000e+02	-3.753733e-02	-3.894351e-01	-1.864932e-01	-1.307839e-01	-5.570927e-02
3.220000e+02	-3.752671e-02	-3.890963e-01	-1.865042e-01	-1.307788e-01	-5.572540e-02
3.230000e+02	-3.751851e-02	-3.887566e-01	-1.865199e-01	-1.307784e-01	-5.574142e-02
3.240000e+02	-3.750801e-02	-3.884208e-01	-1.865312e-01	-1.307736e-01	-5.575759e-02
3.250000e+02	-3.749979e-02	-3.880845e-01	-1.865469e-01	-1.307732e-01	-5.577366e-02
3.260000e+02	-3.748928e-02	-3.877518e-01	-1.865582e-01	-1.307684e-01	-5.578981e-02
3.270000e+02	-3.748113e-02	-3.874187e-01	-1.865740e-01	-1.307681e-01	-5.580587e-02
3.280000e+02	-3.747066e-02	-3.870892e-01	-1.865854e-01	-1.307634e-01	-5.582204e-02
3.290000e+02	-3.746268e-02	-3.867594e-01	-1.866016e-01	-1.307635e-01	-5.583811e-02
3.300000e+02	-3.745234e-02	-3.864328e-01	-1.866133e-01	-1.307590e-01	-5.585429e-02
3.310000e+02	-3.744441e-02	-3.861062e-01	-1.866295e-01	-1.307591e-01	-5.587032e-02
3.320000e+02	-3.743399e-02	-3.857824e-01	-1.866409e-01	-1.307544e-01	-5.588645e-02
3.330000e+02	-3.742616e-02	-3.854590e-01	-1.866572e-01	-1.307548e-01	-5.590245e-02
3.340000e+02	-3.741579e-02	-3.851381e-01	-1.866687e-01	-1.307501e-01	-5.591855e-02
3.350000e+02	-3.740815e-02	-3.848177e-01	-1.866853e-01	-1.307508e-01	-5.593452e-02
3.360000e+02	-3.739789e-02	-3.844998e-01	-1.866969e-01	-1.307463e-01	-5.595057e-02
3.370000e+02	-3.739015e-02	-3.841824e-01	-1.867133e-01	-1.307468e-01	-5.596650e-02
3.380000e+02	-3.738006e-02	-3.838673e-01	-1.867252e-01	-1.307426e-01	-5.598252e-02
3.390000e+02	-3.737230e-02	-3.835529e-01	-1.867414e-01	-1.307430e-01	-5.599837e-02
3.400000e+02	-3.736251e-02	-3.832405e-01	-1.867537e-01	-1.307393e-01	-5.601432e-02
3.410000e+02	-3.735477e-02	-3.829290e-01	-1.867698e-01	-1.307397e-01	-5.603013e-02
3.420000e+02	-3.734492e-02	-3.826195e-01	-1.867819e-01	-1.307359e-01	-5.604602e-02
3.430000e+02	-3.733727e-02	-3.823108e-01	-1.867981e-01	-1.307363e-01	-5.606177e-02
3.440000e+02	-3.732754e-02	-3.820039e-01	-1.868103e-01	-1.307327e-01	-5.607760e-02
3.450000e+02	-3.731997e-02	-3.816981e-01	-1.868265e-01	-1.307332e-01	-5.609329e-02
3.460000e+02	-3.731041e-02	-3.813939e-01	-1.868389e-01	-1.307299e-01	-5.610904e-02
3.470000e+02	-3.730273e-02	-3.810908e-01	-1.868548e-01	-1.307301e-01	-5.612467e-02
3.480000e+02	-3.729328e-02	-3.807893e-01	-1.868673e-01	-1.307269e-01	-5.614037e-02
3.490000e+02	-3.728563e-02	-3.804887e-01	-1.868832e-01	-1.307272e-01	-5.615595e-02
3.500000e+02	-3.727642e-02	-3.801902e-01	-1.868959e-01	-1.307244e-01	-5.617153e-02
3.510000e+02	-3.726875e-02	-3.798920e-01	-1.869116e-01	-1.307246e-01	-5.618705e-02
3.520000e+02	-3.725973e-02	-3.795963e-01	-1.869247e-01	-1.307221e-01	-5.620261e-02
3.530000e+02	-3.725194e-02	-3.793005e-01	-1.869400e-01	-1.307219e-01	-5.621806e-02
3.540000e+02	-3.724311e-02	-3.790075e-01	-1.869533e-01	-1.307198e-01	-5.623355e-02
3.550000e+02	-3.723519e-02	-3.787142e-01	-1.869683e-01	-1.307193e-01	-5.624894e-02
3.560000e+02	-3.722666e-02	-3.784238e-01	-1.869821e-01	-1.307177e-01	-5.626438e-02