# Force coefficients
# liftDir    : (1.000000e+00 0.000000e+00 0.000000e+00)
# dragDir    : (0.000000e+00 0.000000e+00 1.000000e+00)
# pitchAxis  : (0.000000e+00 1.000000e+00 0.000000e+00)
# magUInf    : 1.000000e+02
# lRef       : 1.000000e+00
# Aref       : 1.356200e-03
# CofR       : (0.000000e+00 0.000000e+00 3.810000e-01)
# Time       	Cm           	Cd           	Cl           	Cl(f)        	Cl(r)        	Cm	Cd	Cl	Cl(f)	Cl(r)
1.000000e+00	-2.019961e+00	-8.863290e+01	-3.214811e+01	-1.809401e+01	-1.405409e+01
2.000000e+00	-1.124847e+00	-5.540327e+01	-1.870952e+01	-1.047961e+01	-8.229914e+00
3.000000e+00	1.236110e-01	9.386857e+00	4.839114e+00	2.543168e+00	2.295946e+00
4.000000e+00	4.398883e-01	3.414035e+01	1.226359e+01	6.571686e+00	5.691909e+00
5.000000e+00	2.523934e-01	1.802513e+01	4.989351e+00	2.747069e+00	2.242282e+00
6.000000e+00	7.654266e-02	-7.281575e+00	-3.523279e+00	-1.685097e+00	-1.838182e+00
7.000000e+00	-2.930927e-02	-1.768285e+01	-5.214331e+00	-2.636475e+00	-2.577856e+00
8.000000e+00	-1.185131e-01	-9.342283e+00	-1.675569e+00	-9.562976e-01	-7.192715e-01
9.000000e+00	-1.573484e-01	2.777455e+00	1.564777e+00	6.250400e-01	9.397367e-01
1.000000e+01	-1.158314e-01	7.268933e+00	1.746127e+00	7.572320e-01	9.888948e-01
1.100000e+01	-3.826858e-02	2.409183e+00	3.636435e-02	-2.008641e-02	5.645076e-02
1.200000e+01	9.587870e-03	-3.790078e+00	-1.188793e+00	-5.848086e-01	-6.039844e-01
1.300000e+01	7.666336e-03	-5.312002e+00	-9.813552e-01	-4.830113e-01	-4.983439e-01
1.400000e+01	-1.605218e-02	-2.589471e+00	-1.021408e-01	-6.712257e-02	-3.501820e-02
1.500000e+01	-3.451246e-02	5.464068e-01	3.842200e-01	1.575975e-01	2.266225e-01
1.600000e+01	-4.260452e-02	1.191387e+00	1.891479e-01	5.196943e-02	1.371785e-01
1.700000e+01	-4.543808e-02	-3.012457e-01	-2.516003e-01	-1.712382e-01	-8.036208e-02
1.800000e+01	-4.540559e-02	-1.843789e+00	-4.544188e-01	-2.726150e-01	-1.818038e-01
1.900000e+01	-4.141737e-02	-2.090142e+00	-3.352162e-01	-2.090255e-01	-1.261907e-01
2.000000e+01	-3.420240e-02	-1.309825e+00	-1.140082e-01	-9.120652e-02	-2.280172e-02
2.100000e+01	-2.752419e-02	-5.353493e-01	-8.584816e-03	-3.181660e-02	2.323178e-02
2.200000e+01	-2.508906e-02	-4.158357e-01	-5.363570e-02	-5.190692e-02	-1.728786e-03
2.300000e+01	-2.767672e-02	-8.030721e-01	-1.491566e-01	-1.022550e-01	-4.690158e-02
2.400000e+01	-3.251659e-02	-1.153598e+00	-1.972966e-01	-1.311649e-01	-6.613172e-02
2.500000e+01	-3.622915e-02	-1.174879e+00	-1.811283e-01	-1.267933e-01	-5.433498e-02
2.600000e+01	-3.673589e-02	-9.525639e-01	-1.390491e-01	-1.062605e-01	-3.278868e-02
2.700000e+01	-3.452161e-02	-7.631613e-01	-1.128415e-01	-9.094234e-02	-2.189912e-02
2.800000e+01	-3.147791e-02	-7.483866e-01	-1.130247e-01	-8.799028e-02	-2.503445e-02
2.900000e+01	-2.937506e-02	-8.520848e-01	-1.253592e-01	-9.205465e-02	-3.330453e-02
3.000000e+01	-2.889384e-02	-9.353207e-01	-1.329730e-01	-9.538032e-02	-3.759263e-02
3.100000e+01	-2.959505e-02	-9.252808e-01	-1.302360e-01	-9.471305e-02	-3.552296e-02
3.200000e+01	-3.053178e-02	-8.545882e-01	-1.221254e-01	-9.159448e-02	-3.053092e-02
3.300000e+01	-3.090282e-02	-7.959183e-01	-1.159826e-01	-8.889413e-02	-2.708849e-02
3.400000e+01	-3.054596e-02	-7.878492e-01	-1.151592e-01	-8.812555e-02	-2.703363e-02
3.500000e+01	-2.991924e-02	-8.097127e-01	-1.176726e-01	-8.875553e-02	-2.891706e-02
3.600000e+01	-2.942361e-02	-8.275548e-01	-1.190938e-01	-8.897049e-02	-3.012327e-02
3.700000e+01	-2.913045e-02	-8.218249e-01	-1.170704e-01	-8.766563e-02	-2.940473e-02
3.800000e+01	-2.890334e-02	-7.989692e-01	-1.130291e-01	-8.541790e-02	-2.761122e-02
3.900000e+01	-2.860811e-02	-7.774415e-01	-1.096756e-01	-8.344589e-02	-2.622966e-02
4.000000e+01	-2.829371e-02	-7.684596e-01	-1.085294e-01	-8.255840e-02	-2.597098e-02
4.100000e+01	-2.804565e-02	-7.692749e-01	-1.088310e-01	-8.246116e-02	-2.636985e-02
4.200000e+01	-2.786185e-02	-7.698648e-01	-1.088120e-01	-8.226784e-02	-2.654414e-02
4.300000e+01	-2.767922e-02	-7.637857e-01	-1.078434e-01	-8.160091e-02	-2.624247e-02
4.400000e+01	-2.742251e-02	-7.533279e-01	-1.060652e-01	-8.045513e-02	-2.561010e-02
4.500000e+01	-2.709692e-02	-7.431568e-01	-1.042632e-01	-7.922852e-02	-2.503468e-02
4.600000e+01	-2.678917e-02	-7.363197e-01	-1.032765e-01	-7.842744e-02	-2.484909e-02
4.700000e+01	-2.658841e-02	-7.323251e-01	-1.029626e-01	-7.806973e-02	-2.489291e-02
4.800000e+01	-2.644345e-02	-7.289852e-01	-1.026207e-01	-7.775381e-02	-2.486691e-02
4.900000e+01	-2.627940e-02	-7.239242e-01	-1.018940e-01	-7.722642e-02	-2.466761e-02
5.000000e+01	-2.606938e-02	-7.167777e-01	-1.010334e-01	-7.658607e-02	-2.444731e-02
5.100000e+01	-2.580429e-02	-7.098853e-01	-1.001219e-01	-7.586525e-02	-2.425667e-02
5.200000e+01	-2.553209e-02	-7.044411e-01	-9.930482e-02	-7.518450e-02	-2.412032e-02
5.300000e+01	-2.529267e-02	-6.998720e-01	-9.873084e-02	-7.465809e-02	-2.407275e-02
5.400000e+01	-2.510447e-02	-6.955861e-01	-9.826500e-02	-7.423697e-02	-2.402803e-02
5.500000e+01	-2.492976e-02	-6.910541e-01	-9.775157e-02	-7.380554e-02	-2.394603e-02
5.600000e+01	-2.474021e-02	-6.859786e-01	-9.720252e-02	-7.334147e-02	-2.386106e-02
5.700000e+01	-2.454676e-02	-6.807398e-01	-9.669510e-02	-7.289431e-02	-2.380079e-02
5.800000e+01	-2.437847e-02	-6.757926e-01	-9.632447e-02	-7.254070e-02	-2.378376e-02
5.900000e+01	-2.421496e-02	-6.713177e-01	-9.596253e-02	-7.219622e-02	-2.376631e-02
6.000000e+01	-2.405115e-02	-6.670317e-01	-9.557206e-02	-7.183718e-02	-2.373488e-02
6.100000e+01	-2.388150e-02	-6.630970e-01	-9.515955e-02	-7.146128e-02	-2.369827e-02
6.200000e+01	-2.370703e-02	-6.591143e-01	-9.476998e-02	-7.109202e-02	-2.367796e-02
6.300000e+01	-2.354422e-02	-6.548076e-01	-9.443350e-02	-7.076097e-02	-2.367253e-02
6.400000e+01	-2.339416e-02	-6.504031e-01	-9.414556e-02	-7.046693e-02	-2.367862e-02
6.500000e+01	-2.325342e-02	-6.462280e-01	-9.387567e-02	-7.019125e-02	-2.368441e-02
6.600000e+01	-2.312490e-02	-6.422825e-01	-9.361427e-02	-6.993203e-02	-2.368224e-02
6.700000e+01	-2.299283e-02	-6.385452e-01	-9.334805e-02	-6.966686e-02	-2.368119e-02
6.800000e+01	-2.286555e-02	-6.349018e-01	-9.310559e-02	-6.941834e-02	-2.368725e-02
6.900000e+01	-2.274822e-02	-6.311462e-01	-9.289506e-02	-6.919575e-02	-2.369931e-02
7.000000e+01	-2.263518e-02	-6.276164e-01	-9.268580e-02	-6.897808e-02	-2.370772e-02
7.100000e+01	-2.252941e-02	-6.241283e-01	-9.251674e-02	-6.878778e-02	-2.372896e-02
7.200000e+01	-2.242024e-02	-6.206342e-01	-9.232833e-02	-6.858440e-02	-2.374392e-02
7.300000e+01	-2.232623e-02	-6.170698e-01	-9.216847e-02	-6.841047e-02	-2.375801e-02
7.400000e+01	-2.223281e-02	-6.136733e-01	-9.200260e-02	-6.823412e-02	-2.376849e-02
7.500000e+01	-2.214958e-02	-6.104128e-01	-9.185069e-02	-6.807492e-02	-2.377577e-02
7.600000e+01	-2.205886e-02	-6.072719e-01	-9.169073e-02	-6.790423e-02	-2.378650e-02
7.700000e+01	-2.198063e-02	-6.040505e-01	-9.156882e-02	-6.776504e-02	-2.380378e-02
7.800000e+01	-2.189901e-02	-6.010006e-01	-9.145384e-02	-6.762593e-02	-2.382791e-02
7.900000e+01	-2.183185e-02	-5.980486e-01	-9.137096e-02	-6.751734e-02	-2.385363e-02
8.000000e+01	-2.176141e-02	-5.951498e-01	-9.125920e-02	-6.739100e-02	-2.386819e-02
8.100000e+01	-2.170425e-02	-5.922099e-01	-9.116214e-02	-6.728532e-02	-2.387681e-02
8.200000e+01	-2.164065e-02	-5.893513e-01	-9.106899e-02	-6.717515e-02	-2.389384e-02
8.300000e+01	-2.158345e-02	-5.865467e-01	-9.100484e-02	-6.708587e-02	-2.391897e-02
8.400000e+01	-2.152381e-02	-5.837813e-01	-9.091686e-02	-6.698223e-02	-2.393462e-02
8.500000e+01	-2.147622e-02	-5.811917e-01	-9.085411e-02	-6.690328e-02	-2.395083e-02
8.600000e+01	-2.142303e-02	-5.787190e-01	-9.080685e-02	-6.682646e-02	-2.398040e-02
8.700000e+01	-2.138108e-02	-5.762996e-01	-9.076021e-02	-6.676118e-02	-2.399903e-02
8.800000e+01	-2.134075e-02	-5.738172e-01	-9.069735e-02	-6.668943e-02	-2.400792e-02
8.900000e+01	-2.130334e-02	-5.713584e-01	-9.065482e-02	-6.663075e-02	-2.402407e-02
9.000000e+01	-2.125982e-02	-5.689777e-01	-9.061485e-02	-6.656724e-02	-2.404761e-02
9.100000e+01	-2.122531e-02	-5.667000e-01	-9.058828e-02	-6.651945e-02	-2.406884e-02
9.200000e+01	-2.118944e-02	-5.644826e-01	-9.054764e-02	-6.646326e-02	-2.408439e-02
9.300000e+01	-2.115886e-02	-5.622941e-01	-9.051819e-02	-6.641796e-02	-2.410023e-02
9.400000e+01	-2.113109e-02	-5.600491e-01	-9.047242e-02	-6.636730e-02	-2.410512e-02
9.500000e+01	-2.110803e-02	-5.578265e-01	-9.044610e-02	-6.633107e-02	-2.411502e-02
9.600000e+01	-2.108279e-02	-5.557521e-01	-9.041737e-02	-6.629148e-02	-2.412589e-02
9.700000e+01	-2.106240e-02	-5.537764e-01	-9.039667e-02	-6.626073e-02	-2.413594e-02
9.800000e+01	-2.104317e-02	-5.518428e-01	-9.036267e-02	-6.622451e-02	-2.413817e-02
9.900000e+01	-2.102754e-02	-5.498712e-01	-9.033409e-02	-6.619459e-02	-2.413950e-02
1.000000e+02	-2.100988e-02	-5.479140e-01	-9.030184e-02	-6.616081e-02	-2.414104e-02
1.010000e+02	-2.100022e-02	-5.460006e-01	-9.027021e-02	-6.613532e-02	-2.413489e-02
1.020000e+02	-2.098721e-02	-5.441367e-01	-9.023456e-02	-6.610448e-02	-2.413007e-02
1.030000e+02	-2.098056e-02	-5.423143e-01	-9.020400e-02	-6.608257e-02	-2.412144e-02
1.040000e+02	-2.097162e-02	-5.405181e-01	-9.016174e-02	-6.605249e-02	-2.410925e-02
1.050000e+02	-2.096861e-02	-5.387252e-01	-9.012542e-02	-6.603132e-02	-2.409410e-02
1.060000e+02	-2.096331e-02	-5.369474e-01	-9.007919e-02	-6.600290e-02	-2.407629e-02
1.070000e+02	-2.096339e-02	-5.351880e-01	-9.003970e-02	-6.598324e-02	-2.405646e-02
1.080000e+02	-2.096070e-02	-5.334624e-01	-8.999121e-02	-6.595630e-02	-2.403490e-02
1.090000e+02	-2.096246e-02	-5.317637e-01	-8.994817e-02	-6.593655e-02	-2.401162e-02
1.100000e+02	-2.096154e-02	-5.301017e-01	-8.989567e-02	-6.590938e-02	-2.398629e-02
1.110000e+02	-2.096782e-02	-5.283461e-01	-8.984164e-02	-6.588864e-02	-2.395300e-02
1.120000e+02	-2.097261e-02	-5.265950e-01	-8.978093e-02	-6.586308e-02	-2.391786e-02
1.130000e+02	-2.097811e-02	-5.249079e-01	-8.972731e-02	-6.584176e-02	-2.388555e-02
1.140000e+02	-2.098307e-02	-5.232303e-01	-8.966999e-02	-6.581807e-02	-2.385193e-02
1.150000e+02	-2.099037e-02	-5.215551e-01	-8.961241e-02	-6.579658e-02	-2.381583e-02
1.160000e+02	-2.099667e-02	-5.199241e-01	-8.955272e-02	-6.577303e-02	-2.377969e-02
1.170000e+02	-2.100191e-02	-5.183242e-01	-8.949332e-02	-6.574857e-02	-2.374476e-02
1.180000e+02	-2.100726e-02	-5.167371e-01	-8.943529e-02	-6.572490e-02	-2.371039e-02
1.190000e+02	-2.101231e-02	-5.151425e-01	-8.937568e-02	-6.570015e-02	-2.367552e-02
1.200000e+02	-2.101929e-02	-5.135514e-01	-8.931808e-02	-6.567832e-02	-2.363975e-02
1.210000e+02	-2.102423e-02	-5.119685e-01	-8.925655e-02	-6.565250e-02	-2.360405e-02
1.220000e+02	-2.103065e-02	-5.104076e-01	-8.919925e-02	-6.563027e-02	-2.356898e-02
1.230000e+02	-2.103410e-02	-5.088606e-01	-8.913830e-02	-6.560325e-02	-2.353505e-02
1.240000e+02	-2.103953e-02	-5.073318e-01	-8.908384e-02	-6.558145e-02	-2.350238e-02
1.250000e+02	-2.104188e-02	-5.058126e-01	-8.902608e-02	-6.555492e-02	-2.347115e-02
1.260000e+02	-2.104638e-02	-5.043133e-01	-8.897579e-02	-6.553428e-02	-2.344152e-02
1.270000e+02	-2.104726e-02	-5.028268e-01	-8.891732e-02	-6.550592e-02	-2.341140e-02
1.280000e+02	-2.105053e-02	-5.013642e-01	-8.886977e-02	-6.548542e-02	-2.338435e-02
1.290000e+02	-2.104914e-02	-4.999205e-01	-8.882038e-02	-6.545933e-02	-2.336105e-02
1.300000e+02	-2.104990e-02	-4.984995e-01	-8.877866e-02	-6.543923e-02	-2.333944e-02
1.310000e+02	-2.104704e-02	-4.970909e-01	-8.873144e-02	-6.541276e-02	-2.331868e-02
1.320000e+02	-2.104720e-02	-4.957112e-01	-8.869016e-02	-6.539228e-02	-2.329788e-02
1.330000e+02	-2.104297e-02	-4.943499e-01	-8.864609e-02	-6.536602e-02	-2.328007e-02
1.340000e+02	-2.103982e-02	-4.930157e-01	-8.861441e-02	-6.534703e-02	-2.326739e-02
1.350000e+02	-2.103349e-02	-4.916955e-01	-8.857693e-02	-6.532195e-02	-2.325497e-02
1.360000e+02	-2.102907e-02	-4.904075e-01	-8.854764e-02	-6.530289e-02	-2.324475e-02
1.370000e+02	-2.102130e-02	-4.891438e-01	-8.851397e-02	-6.527828e-02	-2.323569e-02
1.380000e+02	-2.101481e-02	-4.879070e-01	-8.848794e-02	-6.525878e-02	-2.322916e-02
1.390000e+02	-2.100528e-02	-4.866791e-01	-8.845995e-02	-6.523525e-02	-2.322470e-02
1.400000e+02	-2.099803e-02	-4.854884e-01	-8.843756e-02	-6.521681e-02	-2.322076e-02
1.410000e+02	-2.098749e-02	-4.843210e-01	-8.841284e-02	-6.519391e-02	-2.321893e-02
1.420000e+02	-2.097795e-02	-4.831804e-01	-8.839596e-02	-6.517593e-02	-2.322002e-02
1.430000e+02	-2.096528e-02	-4.820510e-01	-8.837700e-02	-6.515379e-02	-2.322322e-02
1.440000e+02	-2.095543e-02	-4.809530e-01	-8.836139e-02	-6.513613e-02	-2.322526e-02
1.450000e+02	-2.094327e-02	-4.798751e-01	-8.834193e-02	-6.511423e-02	-2.322770e-02
1.460000e+02	-2.093180e-02	-4.788239e-01	-8.833013e-02	-6.509686e-02	-2.323326e-02
1.470000e+02	-2.091858e-02	-4.777899e-01	-8.831515e-02	-6.507615e-02	-2.323900e-02
1.480000e+02	-2.090680e-02	-4.767757e-01	-8.830407e-02	-6.505883e-02	-2.324524e-02
1.490000e+02	-2.089387e-02	-4.757778e-01	-8.829001e-02	-6.503888e-02	-2.325113e-02
1.500000e+02	-2.088131e-02	-4.748037e-01	-8.828032e-02	-6.502147e-02	-2.325885e-02
1.510000e+02	-2.086805e-02	-4.738483e-01	-8.826901e-02	-6.500256e-02	-2.326645e-02
1.520000e+02	-2.085568e-02	-4.729109e-01	-8.825851e-02	-6.498493e-02	-2.327358e-02
1.530000e+02	-2.084322e-02	-4.719848e-01	-8.824642e-02	-6.496643e-02	-2.327999e-02
1.540000e+02	-2.083085e-02	-4.710762e-01	-8.823537e-02	-6.494854e-02	-2.328684e-02
1.550000e+02	-2.081868e-02	-4.701782e-01	-8.822431e-02	-6.493084e-02	-2.329347e-02
1.560000e+02	-2.080619e-02	-4.692995e-01	-8.821346e-02	-6.491292e-02	-2.330054e-02
1.570000e+02	-2.079468e-02	-4.684318e-01	-8.820377e-02	-6.489656e-02	-2.330721e-02
1.580000e+02	-2.078258e-02	-4.675791e-01	-8.819150e-02	-6.487833e-02	-2.331317e-02
1.590000e+02	-2.077206e-02	-4.667306e-01	-8.818058e-02	-6.486235e-02	-2.331823e-02
1.600000e+02	-2.076009e-02	-4.658954e-01	-8.816647e-02	-6.484333e-02	-2.332314e-02
1.610000e+02	-2.075018e-02	-4.650648e-01	-8.815619e-02	-6.482827e-02	-2.332791e-02
1.620000e+02	-2.073820e-02	-4.642479e-01	-8.814306e-02	-6.480973e-02	-2.333333e-02
1.630000e+02	-2.072758e-02	-4.634911e-01	-8.813353e-02	-6.479434e-02	-2.333919e-02
1.640000e+02	-2.071473e-02	-4.627360e-01	-8.811983e-02	-6.477465e-02	-2.334518e-02
1.650000e+02	-2.070560e-02	-4.619454e-01	-8.811198e-02	-6.476159e-02	-2.335039e-02
1.660000e+02	-2.069456e-02	-4.611444e-01	-8.809841e-02	-6.474376e-02	-2.335465e-02
1.670000e+02	-2.068631e-02	-4.603529e-01	-8.808962e-02	-6.473112e-02	-2.335851e-02
1.680000e+02	-2.067493e-02	-4.595902e-01	-8.807466e-02	-6.471227e-02	-2.336240e-02
1.690000e+02	-2.066610e-02	-4.588429e-01	-8.806604e-02	-6.469911e-02	-2.336692e-02
1.700000e+02	-2.065517e-02	-4.580832e-01	-8.805026e-02	-6.468030e-02	-2.336996e-02
1.710000e+02	-2.064654e-02	-4.573136e-01	-8.804477e-02	-6.466892e-02	-2.337584e-02
1.720000e+02	-2.063364e-02	-4.565583e-01	-8.803750e-02	-6.465239e-02	-2.338512e-02
1.730000e+02	-2.062107e-02	-4.558492e-01	-8.804406e-02	-6.464310e-02	-2.340096e-02
1.740000e+02	-2.060545e-02	-4.551440e-01	-8.804349e-02	-6.462720e-02	-2.341629e-02
1.750000e+02	-2.059441e-02	-4.544119e-01	-8.804524e-02	-6.461703e-02	-2.342821e-02
1.760000e+02	-2.058108e-02	-4.536702e-01	-8.804056e-02	-6.460136e-02	-2.343920e-02
1.770000e+02	-2.056960e-02	-4.529330e-01	-8.804494e-02	-6.459207e-02	-2.345287e-02
1.780000e+02	-2.055362e-02	-4.522201e-01	-8.804969e-02	-6.457847e-02	-2.347122e-02
1.790000e+02	-2.053867e-02	-4.515173e-01	-8.806358e-02	-6.457046e-02	-2.349312e-02
1.800000e+02	-2.052051e-02	-4.508190e-01	-8.807476e-02	-6.455789e-02	-2.351686e-02
1.810000e+02	-2.050464e-02	-4.501120e-01	-8.809178e-02	-6.455053e-02	-2.354125e-02
1.820000e+02	-2.048587e-02	-4.494081e-01	-8.810643e-02	-6.453908e-02	-2.356735e-02
1.830000e+02	-2.046829e-02	-4.487075e-01	-8.812990e-02	-6.453324e-02	-2.359666e-02
1.840000e+02	-2.044749e-02	-4.480222e-01	-8.815178e-02	-6.452337e-02	-2.362840e-02
1.850000e+02	-2.042795e-02	-4.473409e-01	-8.818079e-02	-6.451835e-02	-2.366244e-02
1.860000e+02	-2.040482e-02	-4.466633e-01	-8.820916e-02	-6.450941e-02	-2.369976e-02
1.870000e+02	-2.038284e-02	-4.459841e-01	-8.824600e-02	-6.450584e-02	-2.374016e-02
1.880000e+02	-2.035796e-02	-4.453137e-01	-8.828126e-02	-6.449859e-02	-2.378267e-02
1.890000e+02	-2.033491e-02	-4.446442e-01	-8.832197e-02	-6.449590e-02	-2.382607e-02
1.900000e+02	-2.030845e-02	-4.439864e-01	-8.836169e-02	-6.448929e-02	-2.387240e-02
1.910000e+02	-2.028316e-02	-4.433308e-01	-8.840875e-02	-6.448754e-02	-2.392121e-02
1.920000e+02	-2.025466e-02	-4.427145e-01	-8.845407e-02	-6.448170e-02	-2.397237e-02
1.930000e+02	-2.022787e-02	-4.420878e-01	-8.850707e-02	-6.448141e-02	-2.402567e-02
1.940000e+02	-2.019801e-02	-4.414419e-01	-8.855684e-02	-6.447643e-02	-2.408041e-02
1.950000e+02	-2.016983e-02	-4.407825e-01	-8.861538e-02	-6.447752e-02	-2.413786e-02
1.960000e+02	-2.013814e-02	-4.401400e-01	-8.867074e-02	-6.447351e-02	-2.419723e-02
1.970000e+02	-2.010888e-02	-4.395122e-01	-8.873344e-02	-6.447560e-02	-2.425784e-02
1.980000e+02	-2.007621e-02	-4.388996e-01	-8.879196e-02	-6.447219e-02	-2.431977e-02
1.990000e+02	-2.004608e-02	-4.382852e-01	-8.885729e-02	-6.447473e-02	-2.438256e-02
2.000000e+02	-2.001230e-02	-4.376722e-01	-8.891970e-02	-6.447216e-02	-2.444755e-02
2.010000e+02	-1.998108e-02	-4.370556e-01	-8.898868e-02	-6.447542e-02	-2.451326e-02
2.020000e+02	-1.994687e-02	-4.364479e-01	-8.905205e-02	-6.447290e-02	-2.457915e-02
2.030000e+02	-1.991579e-02	-4.358450e-01	-8.912151e-02	-6.447655e-02	-2.464497e-02
2.040000e+02	-1.988122e-02	-4.352531e-01	-8.918540e-02	-6.447392e-02	-2.471148e-02
2.050000e+02	-1.984996e-02	-4.346611e-01	-8.925712e-02	-6.447852e-02	-2.477860e-02
2.060000e+02	-1.981511e-02	-4.340740e-01	-8.932219e-02	-6.447621e-02	-2.484599e-02
2.070000e+02	-1.978432e-02	-4.334844e-01	-8.939364e-02	-6.448113e-02	-2.491250e-02
2.080000e+02	-1.974985e-02	-4.329033e-01	-8.945717e-02	-6.447844e-02	-2.497873e-02
2.090000e+02	-1.971950e-02	-4.323225e-01	-8.952767e-02	-6.448333e-02	-2.504434e-02
2.100000e+02	-1.968568e-02	-4.317507e-01	-8.958953e-02	-6.448045e-02	-2.510908e-02
2.110000e+02	-1.965618e-02	-4.311791e-01	-8.965839e-02	-6.448537e-02	-2.517301e-02
2.120000e+02	-1.962308e-02	-4.306124e-01	-8.971869e-02	-6.448243e-02	-2.523627e-02
2.130000e+02	-1.959442e-02	-4.300438e-01	-8.978541e-02	-6.448713e-02	-2.529828e-02
2.140000e+02	-1.956245e-02	-4.294834e-01	-8.984298e-02	-6.448394e-02	-2.535904e-02
2.150000e+02	-1.953493e-02	-4.289205e-01	-8.990632e-02	-6.448809e-02	-2.541822e-02
2.160000e+02	-1.950449e-02	-4.283656e-01	-8.996017e-02	-6.448457e-02	-2.547559e-02
2.170000e+02	-1.947832e-02	-4.278101e-01	-9.002007e-02	-6.448836e-02	-2.553171e-02
2.180000e+02	-1.944914e-02	-4.272592e-01	-9.007093e-02	-6.448461e-02	-2.558632e-02
2.190000e+02	-1.942436e-02	-4.267063e-01	-9.012656e-02	-6.448764e-02	-2.563892e-02
2.200000e+02	-1.939691e-02	-4.261606e-01	-9.017349e-02	-6.448366e-02	-2.568984e-02
2.210000e+02	-1.937356e-02	-4.256116e-01	-9.022435e-02	-6.448574e-02	-2.573861e-02
2.220000e+02	-1.934813e-02	-4.250696e-01	-9.026692e-02	-6.448158e-02	-2.578533e-02
2.230000e+02	-1.932624e-02	-4.245263e-01	-9.031339e-02	-6.448294e-02	-2.583045e-02
2.240000e+02	-1.930238e-02	-4.239875e-01	-9.035197e-02	-6.447836e-02	-2.587361e-02
2.250000e+02	-1.928223e-02	-4.234459e-01	-9.039351e-02	-6.447898e-02	-2.591453e-02
2.260000e+02	-1.926018e-02	-4.229118e-01	-9.042752e-02	-6.447394e-02	-2.595359e-02
2.270000e+02	-1.924184e-02	-4.223734e-01	-9.046438e-02	-6.447403e-02	-2.599035e-02
2.280000e+02	-1.922159e-02	-4.218413e-01	-9.049369e-02	-6.446844e-02	-2.602525e-02
2.290000e+02	-1.920481e-02	-4.213077e-01	-9.052622e-02	-6.446792e-02	-2.605830e-02
2.300000e+02	-1.918629e-02	-4.207782e-01	-9.055109e-02	-6.446183e-02	-2.608926e-02
2.310000e+02	-1.917099e-02	-4.202460e-01	-9.057860e-02	-6.446029e-02	-2.611831e-02
2.320000e+02	-1.915431e-02	-4.197212e-01	-9.059985e-02	-6.445424e-02	-2.614562e-02
2.330000e+02	-1.914066e-02	-4.191921e-01	-9.062276e-02	-6.445204e-02	-2.617072e-02
2.340000e+02	-1.912559e-02	-4.186683e-01	-9.063973e-02	-6.444546e-02	-2.619428e-02
2.350000e+02	-1.911333e-02	-4.181436e-01	-9.065888e-02	-6.444276e-02	-2.621611e-02
2.360000e+02	-1.909977e-02	-4.176225e-01	-9.067186e-02	-6.443570e-02	-2.623617e-02
2.370000e+02	-1.908901e-02	-4.170996e-01	-9.068714e-02	-6.443258e-02	-2.625456e-02
2.380000e+02	-1.907681e-02	-4.165819e-01	-9.069669e-02	-6.442515e-02	-2.627154e-02
2.390000e+02	-1.906747e-02	-4.160639e-01	-9.070890e-02	-6.442192e-02	-2.628698e-02
2.400000e+02	-1.905641e-02	-4.155487e-01	-9.071448e-02	-6.441365e-02	-2.630083e-02
2.410000e+02	-1.904839e-02	-4.150316e-01	-9.072351e-02	-6.441014e-02	-2.631337e-02
2.420000e+02	-1.903838e-02	-4.145201e-01	-9.072655e-02	-6.440165e-02	-2.632490e-02
2.430000e+02	-1.903161e-02	-4.140069e-01	-9.073332e-02	-6.439827e-02	-2.633506e-02
2.440000e+02	-1.902255e-02	-4.135004e-01	-9.073329e-02	-6.438920e-02	-2.634410e-02
2.450000e+02	-1.901687e-02	-4.129903e-01	-9.073710e-02	-6.438542e-02	-2.635168e-02
2.460000e+02	-1.900856e-02	-4.124850e-01	-9.073452e-02	-6.437582e-02	-2.635870e-02
2.470000e+02	-1.900383e-02	-4.119784e-01	-9.073744e-02	-6.437255e-02	-2.636489e-02
2.480000e+02	-1.899617e-02	-4.114779e-01	-9.073282e-02	-6.436258e-02	-2.637024e-02
2.490000e+02	-1.899239e-02	-4.109757e-01	-9.073404e-02	-6.435940e-02	-2.637463e-02
2.500000e+02	-1.898533e-02	-4.104799e-01	-9.072719e-02	-6.434893e-02	-2.637826e-02
2.510000e+02	-1.898232e-02	-4.099814e-01	-9.072697e-02	-6.434581e-02	-2.638116e-02
2.520000e+02	-1.897572e-02	-4.094869e-01	-9.071936e-02	-6.433540e-02	-2.638395e-02
2.530000e+02	-1.897320e-02	-4.089935e-01	-9.071849e-02	-6.433245e-02	-2.638604e-02
2.540000e+02	-1.896698e-02	-4.085047e-01	-9.070943e-02	-6.432170e-02	-2.638773e-02
2.550000e+02	-1.896497e-02	-4.080151e-01	-9.070791e-02	-6.431893e-02	-2.638898e-02
2.560000e+02	-1.895891e-02	-4.075310e-01	-9.069792e-02	-6.430787e-02	-2.639005e-02
2.570000e+02	-1.895756e-02	-4.070457e-01	-9.069618e-02	-6.430565e-02	-2.639053e-02
2.580000e+02	-1.895181e-02	-4.065669e-01	-9.068543e-02	-6.429452e-02	-2.639090e-02
2.590000e+02	-1.895060e-02	-4.060862e-01	-9.068376e-02	-6.429248e-02	-2.639128e-02
2.600000e+02	-1.894471e-02	-4.056112e-01	-9.067310e-02	-6.428126e-02	-2.639184e-02
2.610000e+02	-1.894372e-02	-4.051351e-01	-9.067176e-02	-6.427961e-02	-2.639216e-02
2.620000e+02	-1.893815e-02	-4.046663e-01	-9.066036e-02	-6.426832e-02	-2.639203e-02
2.630000e+02	-1.893742e-02	-4.041954e-01	-9.065886e-02	-6.426685e-02	-2.639202e-02
2.640000e+02	-1.893179e-02	-4.037311e-01	-9.064828e-02	-6.425593e-02	-2.639235e-02
2.650000e+02	-1.893087e-02	-4.032654e-01	-9.064746e-02	-6.425460e-02	-2.639287e-02
2.660000e+02	-1.892527e-02	-4.028068e-01	-9.063735e-02	-6.424394e-02	-2.639341e-02
2.670000e+02	-1.892437e-02	-4.023467e-01	-9.063656e-02	-6.424265e-02	-2.639392e-02
2.680000e+02	-1.891885e-02	-4.018939e-01	-9.062682e-02	-6.423226e-02	-2.639456e-02
2.690000e+02	-1.891778e-02	-4.014397e-01	-9.062656e-02	-6.423106e-02	-2.639550e-02
2.700000e+02	-1.891222e-02	-4.009931e-01	-9.061792e-02	-6.422119e-02	-2.639674e-02
2.710000e+02	-1.891091e-02	-4.005444e-01	-9.061824e-02	-6.422004e-02	-2.639821e-02
2.720000e+02	-1.890547e-02	-4.001061e-01	-9.061044e-02	-6.421069e-02	-2.639975e-02
2.730000e+02	-1.890389e-02	-3.996664e-01	-9.061084e-02	-6.420931e-02	-2.640153e-02
2.740000e+02	-1.889822e-02	-3.992099e-01	-9.060493e-02	-6.420068e-02	-2.640425e-02
2.750000e+02	-1.889625e-02	-3.987505e-01	-9.060718e-02	-6.419984e-02	-2.640734e-02
2.760000e+02	-1.889071e-02	-3.983131e-01	-9.060182e-02	-6.419162e-02	-2.641020e-02
2.770000e+02	-1.888881e-02	-3.978841e-01	-9.060379e-02	-6.419070e-02	-2.641309e-02
2.780000e+02	-1.888303e-02	-3.974637e-01	-9.059872e-02	-6.418239e-02	-2.641633e-02
2.790000e+02	-1.888058e-02	-3.970344e-01	-9.060123e-02	-6.418119e-02	-2.642004e-02
2.800000e+02	-1.887472e-02	-3.966066e-01	-9.059751e-02	-6.417348e-02	-2.642403e-02
2.810000e+02	-1.887206e-02	-3.961763e-01	-9.060074e-02	-6.417243e-02	-2.642831e-02
2.820000e+02	-1.886633e-02	-3.957560e-01	-9.059846e-02	-6.416556e-02	-2.643290e-02
2.830000e+02	-1.886342e-02	-3.953377e-01	-9.060220e-02	-6.416452e-02	-2.643769e-02
2.840000e+02	-1.885761e-02	-3.949302e-01	-9.060091e-02	-6.415807e-02	-2.644285e-02
2.850000e+02	-1.885447e-02	-3.945051e-01	-9.060476e-02	-6.415685e-02	-2.644790e-02
2.860000e+02	-1.884861e-02	-3.940849e-01	-9.060371e-02	-6.415046e-02	-2.645325e-02
2.870000e+02	-1.884534e-02	-3.936545e-01	-9.060792e-02	-6.414930e-02	-2.645862e-02
2.880000e+02	-1.883936e-02	-3.932417e-01	-9.060754e-02	-6.414313e-02	-2.646441e-02
2.890000e+02	-1.883598e-02	-3.928406e-01	-9.061308e-02	-6.414252e-02	-2.647056e-02
2.900000e+02	-1.882985e-02	-3.924506e-01	-9.061394e-02	-6.413682e-02	-2.647712e-02
2.910000e+02	-1.882628e-02	-3.920526e-01	-9.062022e-02	-6.413639e-02	-2.648383e-02
2.920000e+02	-1.882004e-02	-3.916537e-01	-9.062139e-02	-6.413073e-02	-2.649066e-02
2.930000e+02	-1.881637e-02	-3.912511e-01	-9.062786e-02	-6.413030e-02	-2.649756e-02
2.940000e+02	-1.881012e-02	-3.908563e-01	-9.062977e-02	-6.412501e-02	-2.650476e-02
2.950000e+02	-1.880645e-02	-3.904636e-01	-9.063691e-02	-6.412491e-02	-2.651200e-02
2.960000e+02	-1.879997e-02	-3.900788e-01	-9.063898e-02	-6.411946e-02	-2.651952e-02
2.970000e+02	-1.879623e-02	-3.896916e-01	-9.064654e-02	-6.411950e-02	-2.652704e-02
2.980000e+02	-1.878963e-02	-3.893079e-01	-9.064899e-02	-6.411413e-02	-2.653486e-02
2.990000e+02	-1.878595e-02	-3.889217e-01	-9.065727e-02	-6.411458e-02	-2.654269e-02
3.000000e+02	-1.877936e-02	-3.885414e-01	-9.066021e-02	-6.410947e-02	-2.655074e-02
3.010000e+02	-1.877567e-02	-3.881610e-01	-9.066885e-02	-6.411010e-02	-2.655875e-02
3.020000e+02	-1.876899e-02	-3.877871e-01	-9.067174e-02	-6.410486e-02	-2.656688e-02
3.030000e+02	-1.876535e-02	-3.874116e-01	-9.068061e-02	-6.410565e-02	-2.657495e-02
3.040000e+02	-1.875856e-02	-3.870402e-01	-9.068371e-02	-6.410041e-02	-2.658330e-02
3.050000e+02	-1.875493e-02	-3.866672e-01	-9.069312e-02	-6.410149e-02	-2.659163e-02
3.060000e+02	-1.874805e-02	-3.862989e-01	-9.069637e-02	-6.409623e-02	-2.660014e-02
3.070000e+02	-1.874453e-02	-3.859306e-01	-9.070607e-02	-6.409756e-02	-2.660851e-02
3.080000e+02	-1.873770e-02	-3.855676e-01	-9.070938e-02	-6.409239e-02	-2.661699e-02
3.090000e+02	-1.873421e-02	-3.852042e-01	-9.071918e-02	-6.409380e-02	-2.662538e-02
3.100000e+02	-1.872743e-02	-3.848448e-01	-9.072273e-02	-6.408879e-02	-2.663394e-02
3.110000e+02	-1.872393e-02	-3.844840e-01	-9.073275e-02	-6.409031e-02	-2.664244e-02
3.120000e+02	-1.871713e-02	-3.841275e-01	-9.073637e-02	-6.408531e-02	-2.665106e-02
3.130000e+02	-1.871332e-02	-3.837612e-01	-9.074723e-02	-6.408693e-02	-2.666030e-02
3.140000e+02	-1.870629e-02	-3.834007e-01	-9.075155e-02	-6.408206e-02	-2.666949e-02
3.150000e+02	-1.870280e-02	-3.830443e-01	-9.076178e-02	-6.408369e-02	-2.667809e-02
3.160000e+02	-1.869629e-02	-3.826959e-01	-9.076550e-02	-6.407904e-02	-2.668646e-02
3.170000e+02	-1.869288e-02	-3.823459e-01	-9.077535e-02	-6.408055e-02	-2.669479e-02
3.180000e+02	-1.868628e-02	-3.819975e-01	-9.077940e-02	-6.407598e-02	-2.670343e-02
3.190000e+02	-1.868270e-02	-3.816463e-01	-9.078943e-02	-6.407742e-02	-2.671201e-02
3.200000e+02	-1.867624e-02	-3.812997e-01	-9.079367e-02	-6.407308e-02	-2.672060e-02
3.210000e+02	-1.867283e-02	-3.809538e-01	-9.080360e-02	-6.407463e-02	-2.672897e-02
3.220000e+02	-1.866644e-02	-3.806135e-01	-9.080769e-02	-6.407028e-02	-2.673741e-02
3.230000e+02	-1.866312e-02	-3.802718e-01	-9.081777e-02	-6.407201e-02	-2.674576e-02
3.240000e+02	-1.865671e-02	-3.799332e-01	-9.082184e-02	-6.406763e-02	-2.675422e-02
3.250000e+02	-1.865344e-02	-3.795927e-01	-9.083182e-02	-6.406936e-02	-2.676247e-02
3.260000e+02	-1.864716e-02	-3.792566e-01	-9.083585e-02	-6.406508e-02	-2.677077e-02
3.270000e+02	-1.864389e-02	-3.789204e-01	-9.084559e-02	-6.406669e-02	-2.677890e-02
3.280000e+02	-1.863763e-02	-3.785887e-01	-9.084962e-02	-6.406244e-02	-2.678718e-02
3.290000e+02	-1.863452e-02	-3.782561e-01	-9.085968e-02	-6.406436e-02	-2.679532e-02
3.300000e+02	-1.862829e-02	-3.779269e-01	-9.086371e-02	-6.406014e-02	-2.680357e-02
3.310000e+02	-1.862533e-02	-3.775964e-01	-9.087374e-02	-6.406220e-02	-2.681154e-02
3.320000e+02	-1.861897e-02	-3.772698e-01	-9.087722e-02	-6.405759e-02	-2.681964e-02
3.330000e+02	-1.861631e-02	-3.769426e-01	-9.088774e-02	-6.406018e-02	-2.682756e-02
3.340000e+02	-1.860980e-02	-3.766195e-01	-9.089090e-02	-6.405525e-02	-2.683565e-02
3.350000e+02	-1.860735e-02	-3.762956e-01	-9.090177e-02	-6.405824e-02	-2.684353e-02
3.360000e+02	-1.860070e-02	-3.759752e-01	-9.090446e-02	-6.405293e-02	-2.685153e-02
3.370000e+02	-1.859846e-02	-3.756537e-01	-9.091554e-02	-6.405623e-02	-2.685931e-02
3.380000e+02	-1.859171e-02	-3.753361e-01	-9.091787e-02	-6.405064e-02	-2.686722e-02
3.390000e+02	-1.858978e-02	-3.750175e-01	-9.092948e-02	-6.405452e-02	-2.687496e-02
3.400000e+02	-1.858287e-02	-3.747030e-01	-9.093138e-02	-6.404856e-02	-2.688282e-02
3.410000e+02	-1.858122e-02	-3.743874e-01	-9.094340e-02	-6.405292e-02	-2.689048e-02
3.420000e+02	-1.857409e-02	-3.740757e-01	-9.094471e-02	-6.404645e-02	-2.689827e-02
3.430000e+02	-1.857274e-02	-3.737625e-01	-9.095724e-02	-6.405136e-02	-2.690588e-02
3.440000e+02	-1.856543e-02	-3.734536e-01	-9.095806e-02	-6.404446e-02	-2.691360e-02
3.450000e+02	-1.856430e-02	-3.731429e-01	-9.097094e-02	-6.404977e-02	-2.692117e-02
3.460000e+02	-1.855684e-02	-3.728369e-01	-9.097133e-02	-6.404251e-02	-2.692883e-02
3.470000e+02	-1.855596e-02	-3.725289e-01	-9.098461e-02	-6.404826e-02	-2.693635e-02
3.480000e+02	-1.854839e-02	-3.722258e-01	-9.098466e-02	-6.404072e-02	-2.694394e-02
3.490000e+02	-1.854774e-02	-3.719202e-01	-9.099840e-02	-6.404694e-02	-2.695146e-02
3.500000e+02	-1.854005e-02	-3.716198e-01	-9.099813e-02	-6.403912e-02	-2.695901e-02
3.510000e+02	-1.853956e-02	-3.713167e-01	-9.101203e-02	-6.404558e-02	-2.696645e-02
3.520000e+02	-1.853182e-02	-3.710191e-01	-9.101142e-02	-6.403753e-02	-2.697389e-02
3.530000e+02	-1.853144e-02	-3.707184e-01	-9.102556e-02	-6.404422e-02	-2.698134e-02
3.540000e+02	-1.852364e-02	-3.704236e-01	-9.102482e-02	-6.403606e-02	-2.698877e-02
3.550000e+02	-1.852338e-02	-3.701252e-01	-9.103910e-02	-6.404293e-02	-2.699617e-02
3.560000e+02	-1.851560e-02	-3.698330e-01	-9.103835e-02	-6.403478e-02	-2.700357e-02